# vtk DataFile Version 3.0
Output from R2
ASCII
DATASET UNSTRUCTURED_GRID
POINTS       3472 double
    -9.99000     0.00000   0.
     0.00000     0.00000   0.
     1.99000     0.18000   0.
     3.98000     0.37000   0.
     5.98000     0.52000   0.
     7.97000     0.67000   0.
     9.97000     0.76000   0.
    11.97000     0.84000   0.
    13.97000     0.94000   0.
    15.96000     1.04000   0.
    17.96000     1.17000   0.
    19.95000     1.30000   0.
    21.95000     1.40000   0.
    23.95000     1.50000   0.
    25.95000     1.57000   0.
    27.95000     1.64000   0.
    29.95000     1.69000   0.
    31.95000     1.73000   0.
    33.94000     1.83000   0.
    35.94000     1.94000   0.
    37.94000     2.02000   0.
    39.94000     2.11000   0.
    41.93000     2.20000   0.
    43.93000     2.29000   0.
    45.93000     2.36000   0.
    47.93000     2.43000   0.
    49.93000     2.56000   0.
    51.92000     2.68000   0.
    53.92000     2.78000   0.
    55.92000     2.88000   0.
    57.92000     2.94000   0.
    59.92000     3.00000   0.
    61.91000     3.08000   0.
    63.91000     3.15000   0.
    65.91000     3.25000   0.
    67.91000     3.35000   0.
    69.91000     3.44000   0.
    71.90000     3.52000   0.
    73.90000     3.61000   0.
    75.90000     3.70000   0.
    77.90000     3.77000   0.
    79.90000     3.85000   0.
    81.90000     3.94000   0.
    83.89000     4.04000   0.
    85.89000     4.13000   0.
    87.89000     4.22000   0.
    89.89000     4.32000   0.
    91.88000     4.41000   0.
    93.88000     4.49000   0.
    95.88000     4.57000   0.
    97.88000     4.62000   0.
    99.88000     4.67000   0.
   101.88000     4.75000   0.
   103.88000     4.84000   0.
   105.87000     4.92000   0.
   107.87000     5.00000   0.
   109.87000     5.07000   0.
   111.87000     5.13000   0.
   113.87000     5.24000   0.
   123.86000     5.24000   0.
    -9.99000    11.32000   0.
    -2.94000    11.32000   0.
     4.10000    11.70000   0.
    11.14000    12.13000   0.
    18.19000    12.51000   0.
    25.23000    12.87000   0.
    32.28000    13.07000   0.
    39.32000    13.41000   0.
    46.37000    13.70000   0.
    53.41000    14.08000   0.
    60.46000    14.34000   0.
    67.50000    14.65000   0.
    74.55000    14.96000   0.
    81.59000    15.25000   0.
    88.63000    15.58000   0.
    95.68000    15.88000   0.
   102.72000    16.11000   0.
   109.77000    16.38000   0.
   116.81000    16.56000   0.
   123.86000    16.56000   0.
  -579.33000     0.00000   0.
  -579.33000   352.93000   0.
   693.20000     5.24000   0.
   693.20000   352.93000   0.
    -8.08849     0.00000   0.
    -6.45843     0.00000   0.
    -5.06107     0.00000   0.
    -3.86320     0.00000   0.
    -2.83633     0.00000   0.
    -1.95605     0.00000   0.
    -1.20143     0.00000   0.
    -0.55454     0.00000   0.
     0.49750     0.04500   0.
     0.99500     0.09000   0.
     1.49250     0.13500   0.
     2.48750     0.22750   0.
     2.98500     0.27500   0.
     3.48250     0.32250   0.
     4.48000     0.40750   0.
     4.98000     0.44500   0.
     5.48000     0.48250   0.
     6.47750     0.55750   0.
     6.97500     0.59500   0.
     7.47250     0.63250   0.
     8.47000     0.69250   0.
     8.97000     0.71500   0.
     9.47000     0.73750   0.
    10.47000     0.78000   0.
    10.97000     0.80000   0.
    11.47000     0.82000   0.
    12.47000     0.86500   0.
    12.97000     0.89000   0.
    13.47000     0.91500   0.
    14.46750     0.96500   0.
    14.96500     0.99000   0.
    15.46250     1.01500   0.
    16.46000     1.07250   0.
    16.96000     1.10500   0.
    17.46000     1.13750   0.
    18.45750     1.20250   0.
    18.95500     1.23500   0.
    19.45250     1.26750   0.
    20.45000     1.32500   0.
    20.95000     1.35000   0.
    21.45000     1.37500   0.
    22.45000     1.42500   0.
    22.95000     1.45000   0.
    23.45000     1.47500   0.
    24.45000     1.51750   0.
    24.95000     1.53500   0.
    25.45000     1.55250   0.
    26.45000     1.58750   0.
    26.95000     1.60500   0.
    27.45000     1.62250   0.
    28.45000     1.65250   0.
    28.95000     1.66500   0.
    29.45000     1.67750   0.
    30.45000     1.70000   0.
    30.95000     1.71000   0.
    31.45000     1.72000   0.
    32.44750     1.75500   0.
    32.94500     1.78000   0.
    33.44250     1.80500   0.
    34.44000     1.85750   0.
    34.94000     1.88500   0.
    35.44000     1.91250   0.
    36.44000     1.96000   0.
    36.94000     1.98000   0.
    37.44000     2.00000   0.
    38.44000     2.04250   0.
    38.94000     2.06500   0.
    39.44000     2.08750   0.
    40.43750     2.13250   0.
    40.93500     2.15500   0.
    41.43250     2.17750   0.
    42.43000     2.22250   0.
    42.93000     2.24500   0.
    43.43000     2.26750   0.
    44.43000     2.30750   0.
    44.93000     2.32500   0.
    45.43000     2.34250   0.
    46.43000     2.37750   0.
    46.93000     2.39500   0.
    47.43000     2.41250   0.
    48.43000     2.46250   0.
    48.93000     2.49500   0.
    49.43000     2.52750   0.
    50.42750     2.59000   0.
    50.92500     2.62000   0.
    51.42250     2.65000   0.
    52.42000     2.70500   0.
    52.92000     2.73000   0.
    53.42000     2.75500   0.
    54.42000     2.80500   0.
    54.92000     2.83000   0.
    55.42000     2.85500   0.
    56.42000     2.89500   0.
    56.92000     2.91000   0.
    57.42000     2.92500   0.
    58.42000     2.95500   0.
    58.92000     2.97000   0.
    59.42000     2.98500   0.
    60.41750     3.02000   0.
    60.91500     3.04000   0.
    61.41250     3.06000   0.
    62.41000     3.09750   0.
    62.91000     3.11500   0.
    63.41000     3.13250   0.
    64.41000     3.17500   0.
    64.91000     3.20000   0.
    65.41000     3.22500   0.
    66.41000     3.27500   0.
    66.91000     3.30000   0.
    67.41000     3.32500   0.
    68.41000     3.37250   0.
    68.91000     3.39500   0.
    69.41000     3.41750   0.
    70.40750     3.46000   0.
    70.90500     3.48000   0.
    71.40250     3.50000   0.
    72.40000     3.54250   0.
    72.90000     3.56500   0.
    73.40000     3.58750   0.
    74.40000     3.63250   0.
    74.90000     3.65500   0.
    75.40000     3.67750   0.
    76.40000     3.71750   0.
    76.90000     3.73500   0.
    77.40000     3.75250   0.
    78.40000     3.79000   0.
    78.90000     3.81000   0.
    79.40000     3.83000   0.
    80.40000     3.87250   0.
    80.90000     3.89500   0.
    81.40000     3.91750   0.
    82.39750     3.96500   0.
    82.89500     3.99000   0.
    83.39250     4.01500   0.
    84.39000     4.06250   0.
    84.89000     4.08500   0.
    85.39000     4.10750   0.
    86.39000     4.15250   0.
    86.89000     4.17500   0.
    87.39000     4.19750   0.
    88.39000     4.24500   0.
    88.89000     4.27000   0.
    89.39000     4.29500   0.
    90.38750     4.34250   0.
    90.88500     4.36500   0.
    91.38250     4.38750   0.
    92.38000     4.43000   0.
    92.88000     4.45000   0.
    93.38000     4.47000   0.
    94.38000     4.51000   0.
    94.88000     4.53000   0.
    95.38000     4.55000   0.
    96.38000     4.58250   0.
    96.88000     4.59500   0.
    97.38000     4.60750   0.
    98.38000     4.63250   0.
    98.88000     4.64500   0.
    99.38000     4.65750   0.
   100.38000     4.69000   0.
   100.88000     4.71000   0.
   101.38000     4.73000   0.
   102.38000     4.77250   0.
   102.88000     4.79500   0.
   103.38000     4.81750   0.
   104.37750     4.86000   0.
   104.87500     4.88000   0.
   105.37250     4.90000   0.
   106.37000     4.94000   0.
   106.87000     4.96000   0.
   107.37000     4.98000   0.
   108.37000     5.01750   0.
   108.87000     5.03500   0.
   109.37000     5.05250   0.
   110.37000     5.08500   0.
   110.87000     5.10000   0.
   111.37000     5.11500   0.
   112.37000     5.15750   0.
   112.87000     5.18500   0.
   113.37000     5.21250   0.
   114.42454     5.24000   0.
   115.07143     5.24000   0.
   115.82605     5.24000   0.
   116.70633     5.24000   0.
   117.73320     5.24000   0.
   118.93107     5.24000   0.
   120.32843     5.24000   0.
   121.95849     5.24000   0.
    -8.22750    11.32000   0.
    -6.46500    11.32000   0.
    -4.70250    11.32000   0.
    -1.18000    11.41500   0.
     0.58000    11.51000   0.
     2.34000    11.60500   0.
     5.86000    11.80750   0.
     7.62000    11.91500   0.
     9.38000    12.02250   0.
    12.90250    12.22500   0.
    14.66500    12.32000   0.
    16.42750    12.41500   0.
    19.95000    12.60000   0.
    21.71000    12.69000   0.
    23.47000    12.78000   0.
    26.99250    12.92000   0.
    28.75500    12.97000   0.
    30.51750    13.02000   0.
    34.04000    13.15500   0.
    35.80000    13.24000   0.
    37.56000    13.32500   0.
    41.08250    13.48250   0.
    42.84500    13.55500   0.
    44.60750    13.62750   0.
    48.13000    13.79500   0.
    49.89000    13.89000   0.
    51.65000    13.98500   0.
    55.17250    14.14500   0.
    56.93500    14.21000   0.
    58.69750    14.27500   0.
    62.22000    14.41750   0.
    63.98000    14.49500   0.
    65.74000    14.57250   0.
    69.26250    14.72750   0.
    71.02500    14.80500   0.
    72.78750    14.88250   0.
    76.31000    15.03250   0.
    78.07000    15.10500   0.
    79.83000    15.17750   0.
    83.35000    15.33250   0.
    85.11000    15.41500   0.
    86.87000    15.49750   0.
    90.39250    15.65500   0.
    92.15500    15.73000   0.
    93.91750    15.80500   0.
    97.44000    15.93750   0.
    99.20000    15.99500   0.
   100.96000    16.05250   0.
   104.48250    16.17750   0.
   106.24500    16.24500   0.
   108.00750    16.31250   0.
   111.53000    16.42500   0.
   113.29000    16.47000   0.
   115.05000    16.51500   0.
   118.57250    16.56000   0.
   120.33500    16.56000   0.
   122.09750    16.56000   0.
    -9.99000     1.88667   0.
    -9.99000     3.77333   0.
[...]
POINT_DATA      3472
CELL_DATA      6583
SCALARS Resistivity(Ohm-m) double 1
LOOKUP_TABLE default
            71.83182            69.32739            22.78681            15.26514            58.14682            25.22322            38.09869            68.82451            69.28274             2.20526            58.73589            61.13198            36.25749             9.51505             2.24599            71.63015            60.75444            13.40827            19.89921            63.20923             2.78993             8.92581            64.64789            67.02498            43.15976            31.33005            20.01399            50.07595             3.06623            36.04950            26.49748            16.59357            12.61878            38.46370            67.31884            11.57440             8.44605            39.67166            17.30543            16.13157             6.50115             6.74507             2.34352             3.23994             2.80955            21.24987             5.72084            41.74446             6.16141            22.07261            69.89624             5.57602             2.27223            54.89492            16.11776            73.73667            37.13807            10.06786            68.86860             8.03980            58.98079             6.64102            17.30095             2.09150            69.69371            70.41705            15.93150            14.78080            69.51528             7.71292            81.90359            17.20975            24.06306            19.42500            40.43901            44.42651            67.98021            13.23109            36.80249            52.24274            13.79508             5.77806            12.12529            70.05613            18.54746            71.65309            14.80291            19.90783            68.90287            71.80315            48.35067            13.44157            22.28680            30.32416            66.86499            12.54105            31.63749            24.65997            13.30931            31.37445            26.85103            45.59828            68.42377            14.37309            39.34243            16.42669            30.04907            20.06105            47.74659            72.46300             2.78450            19.49817             3.50751            55.15512            38.03774             7.61012            19.82080             7.24190             7.24288            23.71317            12.68800            66.02960             9.40708             5.09954            18.25262            72.12766            83.45792            10.15319            24.36899            20.23097            68.82008            45.89360            66.16578            14.95740            72.66248             6.84516            12.65078             2.43586            16.02982            70.91103            68.72067            20.23675             2.43198             7.74698            20.27923             2.13168            13.95719            39.64521            71.21116            21.26284            47.71117            12.79387            17.12988            68.76138            33.59228            18.33908            79.55132            67.00983            25.30990            40.59140            68.71353            34.94581            20.09832            62.10258            92.43008            25.65466             3.83897            47.59607             6.87398            52.40691            62.67558             7.34049            18.31189            69.52250            21.14407            17.18373            57.74496            26.26691             7.66896            71.04177            14.08599            14.56452            68.04536            21.71076            26.53442            15.43023            24.58461             2.29542            36.03385            69.69457            26.20183            14.68638            29.01782            19.84273            69.73132            17.31137            16.17335            49.00513            68.21769            18.82547            19.32005            20.37138            53.53115            12.06508            24.09483            32.17032             3.85704             5.57690            68.23820             9.01126            20.18354             6.52965            40.87013            65.17973            61.70480             6.43946            24.48450            53.62765             8.31766            41.34242            23.76384             8.09031             9.03103            28.98272            17.03091            56.25627            14.44943            21.66489             8.67497            37.57275            14.81365             9.73316             7.45014             4.38810            12.60218             4.72526            16.43582            37.94949            37.94907            15.43226            12.36298            20.50639            64.02262            68.64769            63.31120            16.67653            15.26875            75.51045            25.66118             2.08467            45.30945            46.97427            72.12832            66.87236            13.53191            33.46585            69.44283            69.19597            19.09736            35.94060            25.81656            25.58114            20.06279            26.65103            11.69685            27.84056            20.50620             3.89819            12.74170            49.08476            17.48962            29.35888            29.40553             7.54896            14.91995             3.53126            27.94160            22.33761            13.63293            28.21127            15.55607            28.53231            43.37659            17.12476            11.49378            31.36086            68.57381            43.19316            21.11053            33.24811            18.68415            32.78750             4.21291            69.79498             2.40644            27.79102             3.20606            70.63267             9.51588            22.98302            30.39177             2.46258            54.74501            13.41866            20.10841            70.57249            33.77574            13.96003            66.54815            19.99073            23.30129            46.56667            16.45524            70.14652            69.28799            12.17974            63.86829             5.37588             7.49726             4.52611             7.33886            28.57232            72.34952            32.50035            69.86792            13.83968            16.03059             5.02972             4.36511             4.74053            18.92905            42.82299            69.82937            12.38565            13.87456            20.56000            70.85503            13.98093            19.67737            50.03714            11.77188            28.07737            26.87332            35.82160            31.59905            20.43095             5.59049             7.80481            15.59943            29.39216            15.34631             2.54571            68.52353            12.71034            69.08646             6.94240            19.85084            12.72769             2.48854             6.96697             2.76807            20.13554            68.00982            17.25828            74.60575            19.74712            24.11717            29.26793            14.57422            11.28264            15.61610            70.05186            58.20910             9.50024            19.24781            16.40135            24.33171            12.26385            67.48987             3.22234            28.09864             5.77321            28.47088            24.65435            48.52428            30.76955            14.43601            69.94300             9.01031            20.37204            34.85856            42.06642             7.76793            15.74381             9.59555             6.23334            19.98994            15.40363             2.25050            12.83175            59.28525             6.25490            14.45814            40.92010            64.01175            69.16421            13.98688            78.74651            18.30569            10.27246            49.56628            76.33842             9.23132            13.85860            43.90347            18.57604            12.53145             8.65184            32.55041            69.81856            22.23866            29.83546             5.17020             2.27666            72.68929            13.90574            18.81441             3.03646             6.27331            15.99004            12.93511            25.96020            16.24363            16.35255            26.58188            60.94374            19.07425            13.97056            12.70683            24.31462            19.00106            10.51098            24.14634            29.71444            16.27629            27.72772            52.24483            19.26328            12.85356            71.20597            23.38340            31.58863            26.01017            17.38522            22.02359            70.11619            69.18930            29.47723            52.75353             7.70234            17.23321            29.56308            33.82952            64.12253            21.51609            22.05206             3.70107            33.50301            15.61456             4.30126            23.87895            26.61532            58.18292            19.48417             3.77368             4.01061             4.70327            18.64634            69.56608            13.51173            62.25727            64.61483            20.02179            16.84041             2.26612            16.38490            15.06030             8.39902            14.66370             4.73476            30.84398            25.27008            54.29459            13.07040            87.77830            48.64131            13.39585            40.44828            11.11122            62.75238            17.93567            49.40751            33.67344            15.67993            28.11620            25.21656            56.79716            13.89917            69.22626            16.64728            24.51254            19.58736             4.39624             2.79244            67.78998            56.66174            68.64915            18.45696            21.04389            89.00670            20.10980            69.32416            89.06301            66.43993            35.30298            10.88305            17.72124            20.41843            70.24718            42.93812            69.73651             4.87901            96.47489            70.63002            17.54404            35.79482            31.80498             2.76143            42.02883            62.75780            19.94871            13.89530            66.44582            24.44773            82.18545            23.64582             8.32578            18.03076            15.83025            69.83510            13.52857            20.39475            20.12672            18.14287            12.86475             9.70132             2.15639            12.59510            70.51206            18.68465            66.93118            25.34333            68.35747            13.16427            25.23770            21.63956            46.11161            70.18308            20.76022            69.10412            67.00552            35.77587            36.48896            64.91133            14.33582            63.45817            21.91614            68.25784            67.08007            20.98231            71.32027            59.93498            71.42115             2.24173            48.30493            20.97493            15.72053            65.96721             5.54737            61.37432            70.09118            11.63931            30.51176            29.68620            25.70864            50.87249            20.31847            24.30883            68.00044            35.51721             2.29068            51.66042            11.92930            14.15304            20.63788            35.05778            19.97427             8.47259            42.76097             3.07926            18.98021            45.35946            18.12144            63.01536            15.09106            12.19486            14.60362            65.84685            47.50732            16.79305            27.44123            17.01610            19.91134            12.48379            58.85805            20.00108            69.09383            61.88332            22.48310             2.05999            16.88461            53.17948            18.90324            87.23634            82.77223            82.68128            69.64404            24.82484            68.42369             6.73909            14.94941             6.58128            19.63133            61.12497            20.85385            55.67436            70.20648            69.24222            16.76075            69.99196            21.24426            13.85514            47.87357             5.95494            70.14639            65.15011            25.77153            16.36678             7.51513            68.35745            68.99589            68.99346            66.55925            57.37577             3.48382            67.46814            68.67536            68.86539            20.39338             6.58387            69.15352            69.59971            11.41963            93.70332            15.80026            33.41154            23.29959            18.40598            21.88250            62.90772            20.88211            23.43953            12.12686            40.59604            64.14970            18.28148            10.53059            69.12601            45.26718            18.49481            63.63707            35.62501             8.76265            27.34062             4.54639            17.40709            15.28704            84.54967            28.90755            19.82105            18.58174            16.95593            20.81358             4.20397            14.12827            69.47585            13.25418            81.77867            33.89794            64.62303            69.50330            66.73134            12.67276            19.22983            44.38948            69.86922            70.06947            69.94966            22.94501            73.26294            12.40266            23.83657            55.22690            48.11616            35.82611            70.88754             5.67919            66.14247            68.18757            28.41248            68.56297            11.05514            71.74585            43.40030            38.26148             3.87987            27.88214            19.86954            10.76729            31.13746            12.71770            22.24547            61.49483            27.21556            16.69406            18.71104             4.36196            26.20165            65.83305            15.46073            19.99158            14.89883            69.95301            14.59666            15.93469            35.58296            26.86579             3.86895            68.80267            20.02593             7.70980             9.99866             2.48685            52.94354             9.91917            22.64465            14.80393            31.42858            28.49210            15.76731             5.85342            10.81865            63.74191            19.28962             2.90415            15.95587             9.20655            10.81725             2.80706             2.94012             3.18346             3.29199             4.70993             3.82556            25.43737            73.45541            73.35363            55.75837            50.92928            15.31125            19.01885            23.06862            69.22751             6.90035            16.20575            20.34008            30.29582            65.95571             4.78498            55.76274            60.75149            28.57565            60.59099            67.43915            16.79969            84.03364            20.95315            33.16461             9.93344             8.54297            24.51869            99.68652            70.01436            11.20176            86.99798            32.78243            20.00592            15.86006             5.91356            17.01150            17.12464            15.76865            68.58436            68.00314            40.30209            59.07735            19.76949            58.96750            12.70893            21.70954            30.03730             6.27115            11.65091            51.69759            19.24163            43.79972            19.97100            60.35885            23.11803            25.11080            21.93827            13.13802             7.24796            27.03323            15.89406            17.12658            20.81298            24.25848            17.87735             8.83110            76.61426            69.93227            17.36130            32.41863            36.69534            69.65796            44.16797            15.96396            24.28547            11.88021            17.05416            37.52427            91.51070            12.27101            53.63888            19.95439            25.67675            19.74620            20.60566            30.34043            15.53727            31.13496            22.72333            68.80580             2.06899            68.97978            19.68696             5.15753            21.93927            50.70569            20.48359            26.90871            12.28200            69.42476            12.56803            16.58545            34.75271            82.29242            13.31471            26.58894            20.84633            19.76219            44.29652            70.18848            45.30476            70.07354            20.03337            16.83843            17.99932            74.08405            69.51992            70.19131            36.82611            12.71165            12.25097            16.76255            57.62494            18.74550            22.69423            14.12273            73.11932            38.68517            19.99223            69.95861            14.79205            46.94099            41.58267            66.84302            68.71994            67.86768            69.59779            12.88989            20.53224             5.04765            73.59684            17.99108            25.93773            88.33897            10.13748            12.06124            65.65874            21.44091            15.21206            69.25331             6.04267            65.31812            70.10649            14.93678            19.36736            19.14848             8.46680            68.98863            36.53567            16.23793            26.22876            29.13179            71.03972             2.48112            21.38496            13.58650            69.32871            20.38096            22.05284            12.31837             8.97591            14.06941             5.96985            69.98466            68.21251            33.25000             2.16074             9.09879            64.29536            44.69129            25.73462             2.18051            19.05089            13.32966            67.85611            19.56370             6.52273            68.39463            18.95770            33.31621            11.72889            19.36998            11.55496            15.00080            69.07213            69.35986            69.53940            68.38988            61.07783            13.55959            53.83380            20.31430             5.22754            12.18746            24.90212            20.29469            13.69014            19.10024            11.82674            14.49114             3.85042  